<?xml version="1.0"?>
<VTKFile type="StructuredGrid" version="0.1">
<StructuredGrid WholeExtent="0 57 0 34 0 0">
<Piece Extent="0 57 0 34 0 0">
<PointData>
<DataArray type="Float32" Name="Displacement" format="ascii" NumberOfComponents="3">
0.00000000000 0.00000000000 0.00000000000 -0.00365510394 0.01001517046 0.00000000000 -0.00657350395 0.01395911651 0.00000000000 -0.00864870863 0.01284399334 0.00000000000 -0.00977422663 0.00768195613 0.00000000000 -0.00984356658 -0.00051483995 0.00000000000 -0.00875023709 -0.01073423973 0.00000000000 -0.00638774680 -0.02196408801 0.00000000000 -0.00264960434 -0.03319222964 0.00000000000 0.00257068166 -0.04340650942 0.00000000000 0.00937960258 -0.05159477218 0.00000000000 0.01788364979 -0.05674486274 0.00000000000 0.02818931466 -0.05784462593 0.00000000000 0.04040308856 -0.05388190656 0.00000000000 0.05463146286 -0.04384454947 0.00000000000 0.07095359891 -0.02684782173 0.00000000000 0.08921078556 -0.00311603606 0.00000000000 0.10912183265 0.02655545431 0.00000000000 0.13040453780 0.06136657682 0.00000000000 0.15277669860 0.10051725889 0.00000000000 0.17595611269 0.14320742795 0.00000000000 0.19966057766 0.18863701144 0.00000000000 0.22360789113 0.23600593678 0.00000000000 0.24751585072 0.28451413140 0.00000000000 0.27110225404 0.33336152273 0.00000000000 0.29408489869 0.38174803820 0.00000000000 0.31618158230 0.42887360524 0.00000000000 0.33711010247 0.47393815128 0.00000000000 0.35658825681 0.51614160375 0.00000000000 0.37434466213 0.55470788910 0.00000000000 0.39035677650 0.58941291124 0.00000000000 0.40485089924 0.62058455155 0.00000000000 0.41806414889 0.64857469042 0.00000000000 0.43023364397 0.67373520824 0.00000000000 0.44159650301 0.69641798541 0.00000000000 0.45238984452 0.71697490233 0.00000000000 0.46285078703 0.73575783940 0.00000000000 0.47321644907 0.75311867699 0.00000000000 0.48372394916 0.76940929552 0.00000000000 0.49461040583 0.78498157537 0.00000000000 0.50611293760 0.80018739694 0.00000000000 0.51846866298 0.81537864062 0.00000000000 0.53191470052 0.83090718682 0.00000000000 0.54669072993 0.84713008031 0.00000000000 0.56334633638 0.86502925758 0.00000000000 0.58303298751 0.88680028776 0.00000000000 0.60697130342 0.91477817859 0.00000000000 0.63638190419 0.95129793783 0.00000000000 0.67248540992 0.99869457325 0.00000000000 0.71650244071 1.05930309261 0.00000000000 0.76965361663 1.13545850365 0.00000000000 0.83315955780 1.22949581414 0.00000000000 0.90824088430 1.34375003184 0.00000000000 0.99611821622 1.48055616450 0.00000000000 1.09801217366 1.64224921990 0.00000000000 1.21514337671 1.83116420577 0.00000000000 1.34873244546 2.04963612988 0.00000000000 1.50000000000 2.30000000000 0.00000000000 0.00000000000 0.00000000000 0.00000000000 -0.00306035630 0.01238876989 0.00000000000 -0.00521275871 0.02047885430 0.00000000000 -0.00635823930 0.02502464419 0.00000000000 -0.00639783019 0.02678053050 0.00000000000 -0.00523256346 0.02650090419 0.00000000000 -0.00276347121 0.02494015620 0.00000000000 0.00110841446 0.02285267748 0.00000000000 0.00648206146 0.02099285898 0.00000000000 0.01345643769 0.02011509165 0.00000000000 0.02213051106 0.02097376645 0.00000000000 0.03260324946 0.02432327431 0.00000000000 0.04497362081 0.03091800618 0.00000000000 0.05934059301 0.04151235302 0.00000000000 0.07580313396 0.05686070578 0.00000000000 0.09443024115 0.07761714141 0.00000000000 0.11503005851 0.10356263356 0.00000000000 0.13727641809 0.13402860058 0.00000000000 0.16084204195 0.16834274548 0.00000000000 0.18539965215 0.20583277127 0.00000000000 0.21062197074 0.24582638096 0.00000000000 0.23618171977 0.28765127757 0.00000000000 0.26175162129 0.33063516409 0.00000000000 0.28700439737 0.37410574355 0.00000000000 0.31161277005 0.41739071895 0.00000000000 0.33524946139 0.45981779330 0.00000000000 0.35758719344 0.50071466961 0.00000000000 0.37829868826 0.53940905090 0.00000000000 0.39705666790 0.57522864018 0.00000000000 0.41354836493 0.60752512010 0.00000000000 0.42779475366 0.63620170542 0.00000000000 0.44015055016 0.66171314295 0.00000000000 0.45098498101 0.68453815917 0.00000000000 0.46066727280 0.70515548056 0.00000000000 0.46956665211 0.72404383359 0.00000000000 0.47805234552 0.74168194474 0.00000000000 0.48649357960 0.75854854049 0.00000000000 0.49525958095 0.77512234731 0.00000000000 0.50471957614 0.79188209168 0.00000000000 0.51524279175 0.80930650008 0.00000000000 0.52719845436 0.82787429897 0.00000000000 0.54095579056 0.84806421485 0.00000000000 0.55688402693 0.87035497418 0.00000000000 0.57535343010 0.89522809863 0.00000000000 0.59686011298 0.92350332705 0.00000000000 0.62214460069 0.95665726644 0.00000000000 0.65197549973 0.99624199373 0.00000000000 0.68712141663 1.04380958586 0.00000000000 0.72835095788 1.10091211977 0.00000000000 0.77643273001 1.16910167240 0.00000000000 0.83213533952 1.24993032069 0.00000000000 0.89622739294 1.34495014157 0.00000000000 0.96947749676 1.45571321199 0.00000000000 1.05265425751 1.58377160888 0.00000000000 1.14652628170 1.73067740919 0.00000000000 1.25186217584 1.89798268986 0.00000000000 1.36943054643 2.08723952781 0.00000000000 1.50000000000 2.30000000000 0.00000000000 0.00000000000 0.00000000000 0.00000000000 -0.00166148011 0.01512403801 0.00000000000 -0.00233053483 0.02723876474 0.00000000000 -0.00191821651 0.03689970921 0.00000000000 -0.00033557748 0.04466240046 0.00000000000 0.00250632992 0.05108236753 0.00000000000 0.00669645336 0.05671513944 0.00000000000 0.01232374051 0.06211624523 0.00000000000 0.01947713901 0.06784121394 0.00000000000 0.02824559655 0.07444557459 0.00000000000 0.03871806078 0.08248485622 0.00000000000 0.05098347937 0.09251458786 0.00000000000 0.06513079998 0.10509029854 0.00000000000 0.08124897027 0.12076751730 0.00000000000 0.09942693791 0.14010177318 0.00000000000 0.11972311517 0.16357038059 0.00000000000 0.14193014323 0.19096989717 0.00000000000 0.16570381946 0.22174636324 0.00000000000 0.19069881028 0.25534292228 0.00000000000 0.21656978213 0.29120271776 0.00000000000 0.24297140141 0.32876889316 0.00000000000 0.26955833457 0.36748459196 0.00000000000 0.29598524801 0.40679295764 0.00000000000 0.32190680818 0.44613713367 0.00000000000 0.34697768148 0.48496026354 0.00000000000 0.37085253434 0.52270549071 0.00000000000 0.39318603320 0.55881595867 0.00000000000 0.41363284446 0.59273481090 0.00000000000 0.43184763457 0.62390519087 0.00000000000 0.44750164531 0.65179323953 0.00000000000 0.46064735220 0.67639403975 0.00000000000 0.47171846448 0.69823161631 0.00000000000 0.48116526672 0.71785299145 0.00000000000 0.48943804355 0.73580518743 0.00000000000 0.49698707955 0.75263522650 0.00000000000 0.50426265934 0.76889013092 0.00000000000 0.51171506751 0.78511692292 0.00000000000 0.51979458867 0.80186262477 0.00000000000 0.52895150741 0.81967425871 0.00000000000 0.53963610834 0.83909884700 0.00000000000 0.55229867606 0.86068341189 0.00000000000 0.56738949518 0.88497497562 0.00000000000 0.58535885028 0.91252056046 0.00000000000 0.60665699079 0.94386833252 0.00000000000 0.63172990807 0.97970486705 0.00000000000 0.66101532373 1.02098555037 0.00000000000 0.69495000925 1.06869665348 0.00000000000 0.73397073608 1.12382444738 0.00000000000 0.77851427570 1.18735520307 0.00000000000 0.82901739957 1.26027519155 0.00000000000 0.88591687917 1.34357068383 0.00000000000 0.94964948596 1.43822795090 0.00000000000 1.02065199141 1.54523326376 0.00000000000 1.09936116700 1.66557289342 0.00000000000 1.18621378418 1.80023311087 0.00000000000 1.28164661443 1.95020018712 0.00000000000 1.38609642921 2.11646039316 0.00000000000 1.50000000000 2.30000000000 0.00000000000 0.00000000000 0.00000000000 0.00000000000 0.00040108771 0.01810260971 0.00000000000 0.00180412683 0.03407473828 0.00000000000 0.00428630720 0.04832381900 0.00000000000 0.00792481869 0.06125728515 0.00000000000 0.01279685113 0.07328257001 0.00000000000 0.01897959439 0.08480710686 0.00000000000 0.02655023831 0.09623832899 0.00000000000 0.03558597274 0.10798366968 0.00000000000 0.04616398754 0.12045056220 0.00000000000 0.05836147256 0.13404643985 0.00000000000 0.07225561764 0.14917873590 0.00000000000 0.08792361264 0.16625488363 0.00000000000 0.10544264741 0.18568231634 0.00000000000 0.12488991181 0.20786846729 0.00000000000 0.14631319282 0.23316025194 0.00000000000 0.16950436380 0.26137785640 0.00000000000 0.19412352976 0.29207025719 0.00000000000 0.21982970673 0.32478418947 0.00000000000 0.24628191074 0.35906638836 0.00000000000 0.27313915780 0.39446358902 0.00000000000 0.30006046396 0.43052252656 0.00000000000 0.32670484523 0.46678993614 0.00000000000 0.35273131764 0.50281255288 0.00000000000 0.37779889722 0.53813711193 0.00000000000 0.40156660000 0.57231034842 0.00000000000 0.42369344200 0.60487899749 0.00000000000 0.44383843925 0.63538979428 0.00000000000 0.46166060777 0.66338947393 0.00000000000 0.47683624225 0.68844602318 0.00000000000 0.48943904654 0.71061621576 0.00000000000 0.49994013364 0.73044561239 0.00000000000 0.50882789520 0.74850102540 0.00000000000 0.51659072287 0.76534926712 0.00000000000 0.52371700833 0.78155714987 0.00000000000 0.53069514324 0.79769148599 0.00000000000 0.53801351923 0.81431908778 0.00000000000 0.54616052799 0.83200676760 0.00000000000 0.55562456117 0.85132133775 0.00000000000 0.56689401041 0.87282961057 0.00000000000 0.58045726740 0.89709839839 0.00000000000 0.59680272378 0.92469451353 0.00000000000 0.61641877121 0.95618476831 0.00000000000 0.63979307110 0.99213607622 0.00000000000 0.66732492492 1.03312758989 0.00000000000 0.69924202593 1.07976223218 0.00000000000 0.73575235074 1.13264565701 0.00000000000 0.77706387593 1.19238351831 0.00000000000 0.82338457811 1.25958147001 0.00000000000 0.87492243386 1.33484516601 0.00000000000 0.93188541979 1.41878026025 0.00000000000 0.99448151248 1.51199240665 0.00000000000 1.06291868853 1.61508725913 0.00000000000 1.13740492454 1.72867047161 0.00000000000 1.21814819709 1.85334769802 0.00000000000 1.30535648279 1.98972459227 0.00000000000 1.39923775823 2.13840680829 0.00000000000 1.50000000000 2.30000000000 0.00000000000 0.00000000000 0.00000000000 0.00000000000 0.00298691022 0.02120611985 0.00000000000 0.00692218543 0.04082266538 0.00000000000 0.01187027932 0.05915160414 0.00000000000 0.01789564553 0.07649490368 0.00000000000 0.02506273775 0.09315453156 0.00000000000 0.03343600963 0.10943245531 0.00000000000 0.04307991485 0.12563064249 0.00000000000 0.05405890707 0.14205106064 0.00000000000 0.06643743995 0.15899567731 0.00000000000 0.08027996717 0.17676646006 0.00000000000 0.09565094239 0.19566537642 0.00000000000 0.11261481927 0.21599439395 0.00000000000 0.13123605149 0.23805548019 0.00000000000 0.15157909272 0.26215060270 0.00000000000 0.17368144600 0.28853511160 0.00000000000 0.19734604432 0.31705861285 0.00000000000 0.22225504201 0.34736179732 0.00000000000 0.24808959525 0.37908362930 0.00000000000 0.27453086018 0.41186307309 0.00000000000 0.30125999299 0.44533909299 0.00000000000 0.32795814982 0.47915065329 0.00000000000 0.35430648686 0.51293671828 0.00000000000 0.37998616026 0.54633625227 0.00000000000 0.40467832618 0.57898821955 0.00000000000 0.42806414080 0.61053158441 0.00000000000 0.44982476028 0.64060531116 0.00000000000 0.46964134078 0.66884836408 0.00000000000 0.48719503847 0.69489970748 0.00000000000 0.50218389474 0.71841724684 0.00000000000 0.51469431108 0.73949453496 0.00000000000 0.52520104909 0.75866077196 0.00000000000 0.53419575560 0.77646409916 0.00000000000 0.54217007745 0.79345265787 0.00000000000 0.54961566145 0.81017458940 0.00000000000 0.55702415444 0.82717803506 0.00000000000 0.56488720323 0.84501113616 0.00000000000 0.57369645467 0.86422203401 0.00000000000 0.58394355557 0.88535886992 0.00000000000 0.59612015276 0.90896978521 0.00000000000 0.61071789307 0.93560292118 0.00000000000 0.62822842332 0.96580641915 0.00000000000 0.64914339035 1.00012842043 0.00000000000 0.67395333013 1.03911662401 0.00000000000 0.70301436678 1.08326520791 0.00000000000 0.73642157655 1.13296440452 0.00000000000 0.77424004298 1.18859250352 0.00000000000 0.81653484957 1.25052779460 0.00000000000 0.86337107985 1.31914856744 0.00000000000 0.91481381736 1.39483311172 0.00000000000 0.97092814560 1.47795971712 0.00000000000 1.03177914811 1.56890667334 0.00000000000 1.09743190840 1.66805227006 0.00000000000 1.16795151001 1.77577479695 0.00000000000 1.24340303645 1.89245254371 0.00000000000 1.32385157124 2.01846380001 0.00000000000 1.40936219792 2.15418685555 0.00000000000 1.50000000000 2.30000000000 0.00000000000 0.00000000000 0.00000000000 0.00000000000 0.00595555048 0.02431620330 0.00000000000 0.01275460015 0.04731843648 0.00000000000 0.02044864731 0.06923769521 0.00000000000 0.02908919028 0.09030497520 0.00000000000 0.03872772736 0.11075127211 0.00000000000 0.04941575687 0.13080758164 0.00000000000 0.06120477712 0.15070489947 0.00000000000 0.07414628642 0.17067422127 0.00000000000 0.08829178308 0.19094654274 0.00000000000 0.10369276541 0.21175285956 0.00000000000 0.12040073173 0.23332416740 0.00000000000 0.13846718035 0.25589146196 0.00000000000 0.15794360957 0.27968573892 0.00000000000 0.17888151772 0.30493799396 0.00000000000 0.20130884656 0.33184331569 0.00000000000 0.22504850886 0.36028426816 0.00000000000 0.24981784921 0.38998249852 0.00000000000 0.27533333977 0.42065832403 0.00000000000 0.30131145266 0.45203206195 0.00000000000 0.32746866005 0.48382402954 0.00000000000 0.35352143405 0.51575454407 0.00000000000 0.37918624683 0.54754392278 0.00000000000 0.40417957052 0.57891248294 0.00000000000 0.42821787727 0.60958054182 0.00000000000 0.45101763921 0.63926841667 0.00000000000 0.47229532849 0.66769642474 0.00000000000 0.49176741726 0.69458488331 0.00000000000 0.50915037765 0.71965410962 0.00000000000 0.52417634174 0.74264068630 0.00000000000 0.53693762020 0.76365529886 0.00000000000 0.54788670227 0.78318273578 0.00000000000 0.55749173712 0.80172405087 0.00000000000 0.56622087394 0.81978029794 0.00000000000 0.57454226190 0.83785253079 0.00000000000 0.58292405019 0.85644180326 0.00000000000 0.59183438798 0.87604916913 0.00000000000 0.60174142445 0.89717568223 0.00000000000 0.61311330879 0.92032239636 0.00000000000 0.62641819016 0.94599036535 0.00000000000 0.64212421776 0.97468064299 0.00000000000 0.66069954076 1.00689428310 0.00000000000 0.68261230833 1.04313233949 0.00000000000 0.70832942697 1.08389527011 0.00000000000 0.73816743693 1.12961143344 0.00000000000 0.77215084489 1.18056916004 0.00000000000 0.81027060474 1.23704069220 0.00000000000 0.85251767037 1.29929827217 0.00000000000 0.89888299567 1.36761414222 0.00000000000 0.94935753452 1.44226054461 0.00000000000 1.00393224082 1.52350972161 0.00000000000 1.06259806846 1.61163391549 0.00000000000 1.12534597131 1.70690536851 0.00000000000 1.19216690328 1.80959632293 0.00000000000 1.26305181824 1.91997902103 0.00000000000 1.33799167009 2.03832570506 0.00000000000 1.41697741271 2.16490861730 0.00000000000 1.50000000000 2.30000000000 0.00000000000 0.00000000000 0.00000000000 0.00000000000 0.00916657158 0.02731449494 0.00000000000 0.01903233013 0.05339794203 0.00000000000 0.02963635865 0.07843672281 0.00000000000 0.04101774012 0.10261721883 0.00000000000 0.05321555753 0.12612581161 0.00000000000 0.06626889385 0.14914888271 0.00000000000 0.08021683208 0.17187281367 0.00000000000 0.09509845521 0.19448398602 0.00000000000 0.11095284621 0.21716878130 0.00000000000 0.12781908808 0.24011358106 0.00000000000 0.14573626379 0.26350476683 0.00000000000 0.16474345634 0.28752872016 0.00000000000 0.18487974871 0.31237182259 0.00000000000 0.20618422389 0.33822045565 0.00000000000 0.22867636639 0.36523322034 0.00000000000 0.25220508151 0.39332692394 0.00000000000 0.27653144437 0.42229387568 0.00000000000 0.30141580424 0.45192535590 0.00000000000 0.32661851039 0.48201264495 0.00000000000 0.35189991207 0.51234702315 0.00000000000 0.37702035854 0.54271977083 0.00000000000 0.40174019908 0.57292216835 0.00000000000 0.42581978294 0.60274549602 0.00000000000 0.44901945938 0.63198103418 0.00000000000 0.47109957767 0.66042006317 0.00000000000 0.49182048707 0.68785386333 0.00000000000 0.51094253684 0.71407371499 0.00000000000 0.52822607625 0.73887089848 0.00000000000 0.54344532223 0.76205011735 0.00000000000 0.55669344832 0.78372480898 0.00000000000 0.56838258462 0.80431714461 0.00000000000 0.57893872892 0.82426271865 0.00000000000 0.58878787901 0.84399712556 0.00000000000 0.59835603269 0.86395595976 0.00000000000 0.60806918773 0.88457481569 0.00000000000 0.61835334194 0.90628928779 0.00000000000 0.62963449310 0.92953497048 0.00000000000 0.64233863900 0.95474745821 0.00000000000 0.65689177743 0.98236234541 0.00000000000 0.67371990619 1.01281522651 0.00000000000 0.69324902305 1.04654169595 0.00000000000 0.71590512580 1.08397734817 0.00000000000 0.74211302072 1.12555730879 0.00000000000 0.77215333862 1.17165997880 0.00000000000 0.80602670021 1.22255359140 0.00000000000 0.84370155480 1.27849372223 0.00000000000 0.88514635172 1.33973594696 0.00000000000 0.93032954029 1.40653584121 0.00000000000 0.97921956984 1.47914898064 0.00000000000 1.03178488968 1.55783094090 0.00000000000 1.08799394914 1.64283729762 0.00000000000 1.14781519755 1.73442362646 0.00000000000 1.21121708422 1.83284550306 0.00000000000 1.27816805848 1.93835850307 0.00000000000 1.34863656964 2.05121820213 0.00000000000 1.42259106704 2.17168017589 0.00000000000 1.50000000000 2.30000000000 0.00000000000 0.00000000000 0.00000000000 0.00000000000 0.01247953656 0.03008262964 0.00000000000 0.02548633454 0.05889707249 0.00000000000 0.03904836081 0.08660331752 0.00000000000 0.05319358228 0.11336135369 0.00000000000 0.06794996583 0.13933116999 0.00000000000 0.08334547835 0.16467275538 0.00000000000 0.09940808674 0.18954609883 0.00000000000 0.11616575787 0.21411118932 0.00000000000 0.13364645865 0.23852801581 0.00000000000 0.15187815596 0.26295656728 0.00000000000 0.17088881669 0.28755683270 0.00000000000 0.19070640773 0.31248880103 0.00000000000 0.21135889598 0.33791246126 0.00000000000 0.23287424831 0.36398780235 0.00000000000 0.25526497735 0.39085318168 0.00000000000 0.27840908634 0.41845868180 0.00000000000 0.30211532049 0.44665744368 0.00000000000 0.32619185261 0.47530180717 0.00000000000 0.35044685555 0.50424411209 0.00000000000 0.37468850213 0.53333669826 0.00000000000 0.39872496517 0.56243190551 0.00000000000 0.42236441752 0.59138207368 0.00000000000 0.44541503199 0.62003954259 0.00000000000 0.46768498141 0.64825665206 0.00000000000 0.48898243862 0.67588574192 0.00000000000 0.50911557645 0.70277915201 0.00000000000 0.52789256771 0.72878922214 0.00000000000 0.54512158525 0.75376829215 0.00000000000 0.56062257519 0.77757931578 0.00000000000 0.57448626983 0.80032936684 0.00000000000 0.58707418758 0.82236963920 0.00000000000 0.59875962017 0.84406194066 0.00000000000 0.60991585933 0.86576807900 0.00000000000 0.62091619680 0.88784986201 0.00000000000 0.63213392431 0.91066909748 0.00000000000 0.64394233359 0.93458759321 0.00000000000 0.65671471637 0.95996715698 0.00000000000 0.67082436438 0.98716959659 0.00000000000 0.68664456936 1.01655671981 0.00000000000 0.70454862304 1.04849033446 0.00000000000 0.72490981714 1.08333224830 0.00000000000 0.74810144340 1.12144426914 0.00000000000 0.77449577048 1.16318803431 0.00000000000 0.80434127513 1.20890455632 0.00000000000 0.83764601179 1.25889479122 0.00000000000 0.87439041193 1.31345509281 0.00000000000 0.91455490699 1.37288181489 0.00000000000 0.95811992845 1.43747131126 0.00000000000 1.00506590776 1.50751993575 0.00000000000 1.05537327638 1.58332404214 0.00000000000 1.10902246578 1.66517998425 0.00000000000 1.16599390740 1.75338411587 0.00000000000 1.22626803270 1.84823279083 0.00000000000 1.28982527316 1.95002236291 0.00000000000 1.35664606022 2.05904918593 0.00000000000 1.42671082535 2.17560961369 0.00000000000 1.50000000000 2.30000000000 0.00000000000 0.00000000000 0.00000000000 0.00000000000 0.01575400851 0.03250224228 0.00000000000 0.03184757253 0.06365171830 0.00000000000 0.04829960127 0.09359210991 0.00000000000 0.06512900397 0.12246709893 0.00000000000 0.08235468985 0.15042036718 0.00000000000 0.09999556814 0.17759559649 0.00000000000 0.11807054806 0.20413646870 0.00000000000 0.13659853883 0.23018666562 0.00000000000 0.15559844969 0.25588986909 0.00000000000 0.17508918985 0.28138976094 0.00000000000 0.19508966854 0.30683002298 0.00000000000 0.21561879499 0.33235433706 0.00000000000 0.23669547842 0.35810638499 0.00000000000 0.25833862805 0.38422984860 0.00000000000 0.28055565133 0.41085155584 0.00000000000 0.30325384745 0.43795164336 0.00000000000 0.32628897057 0.46543471743 0.00000000000 0.34951634882 0.49320476009 0.00000000000 0.37279131036 0.52116575338 0.00000000000 0.39596918331 0.54922167935 0.00000000000 0.41890529584 0.57727652004 0.00000000000 0.44145497608 0.60523425749 0.00000000000 0.46347355218 0.63299887376 0.00000000000 0.48481635228 0.66047435088 0.00000000000 0.50533870453 0.68756467089 0.00000000000 0.52489593707 0.71417381585 0.00000000000 0.54334337805 0.74020576779 0.00000000000 0.56053635561 0.76556450876 0.00000000000 0.57633983960 0.79016205739 0.00000000000 0.59084055914 0.81409527395 0.00000000000 0.60434700259 0.83764586033 0.00000000000 0.61717730004 0.86110355502 0.00000000000 0.62964958157 0.88475809650 0.00000000000 0.64208197725 0.90889922324 0.00000000000 0.65479261717 0.93381667375 0.00000000000 0.66809963139 0.95980018649 0.00000000000 0.68232115001 0.98713949996 0.00000000000 0.69777530310 1.01612435263 0.00000000000 0.71478022074 1.04704448300 0.00000000000 0.73365403301 1.08018962954 0.00000000000 0.75471486999 1.11584953074 0.00000000000 0.77828086176 1.15431392508 0.00000000000 0.80466933535 1.19587274091 0.00000000000 0.83410044971 1.24083887834 0.00000000000 0.86660564892 1.28956985217 0.00000000000 0.90219469490 1.34242830311 0.00000000000 0.94087734958 1.39977687189 0.00000000000 0.98266337490 1.46197819924 0.00000000000 1.02756253278 1.52939492587 0.00000000000 1.07558458516 1.60238969251 0.00000000000 1.12673929397 1.68132513989 0.00000000000 1.18103642114 1.76656390872 0.00000000000 1.23848572860 1.85846863973 0.00000000000 1.29909697829 1.95740197364 0.00000000000 1.36287993213 2.06372655117 0.00000000000 1.42984435205 2.17780501305 0.00000000000 1.50000000000 2.30000000000 0.00000000000 0.00000000000 0.00000000000 0.00000000000 0.01885286258 0.03445928420 0.00000000000 0.03785341016 0.06750456860 0.00000000000 0.05701428624 0.09926536941 0.00000000000 0.07634813434 0.12987120284 0.00000000000 0.09586759798 0.15945158513 0.00000000000 0.11558532065 0.18813603248 0.00000000000 0.13551394587 0.21605406111 0.00000000000 0.15566611716 0.24333518724 0.00000000000 0.17605447803 0.27010892708 0.00000000000 0.19669167199 0.29650479686 0.00000000000 0.21759034255 0.32265231278 0.00000000000 0.23876313322 0.34868099107 0.00000000000 0.26022268752 0.37472034795 0.00000000000 0.28198164895 0.40089989962 0.00000000000 0.30404455186 0.42733630802 0.00000000000 0.32634535074 0.45403435508 0.00000000000 0.34878165898 0.48094121647 0.00000000000 0.37125078964 0.50800359175 0.00000000000 0.39365005574 0.53516818050 0.00000000000 0.41587677035 0.56238168229 0.00000000000 0.43782824652 0.58959079669 0.00000000000 0.45940179728 0.61674222327 0.00000000000 0.48049473569 0.64378266161 0.00000000000 0.50100437479 0.67065881128 0.00000000000 0.52082802764 0.69731737185 0.00000000000 0.53986300728 0.72370504289 0.00000000000 0.55800662676 0.74976852398 0.00000000000 0.57515619912 0.77545451468 0.00000000000 0.59121676888 0.80071559955 0.00000000000 0.60627120407 0.82563971771 0.00000000000 0.62058019625 0.85045016283 0.00000000000 0.63441216847 0.87537611357 0.00000000000 0.64803554373 0.90064674859 0.00000000000 0.66171874508 0.92649124654 0.00000000000 0.67573019554 0.95313878609 0.00000000000 0.69033831813 0.98081854588 0.00000000000 0.70581153589 1.00975970458 0.00000000000 0.72241827184 1.04019144084 0.00000000000 0.74042694900 1.07234293333 0.00000000000 0.76010599041 1.10644336069 0.00000000000 0.78172381910 1.14272190159 0.00000000000 0.80554885808 1.18140773469 0.00000000000 0.83184893470 1.22273054399 0.00000000000 0.86081979800 1.26698116148 0.00000000000 0.89251721020 1.31456917756 0.00000000000 0.92698084996 1.36591782723 0.00000000000 0.96425039593 1.42145034549 0.00000000000 1.00436552676 1.48158996733 0.00000000000 1.04736592110 1.54675992776 0.00000000000 1.09329125760 1.61738346177 0.00000000000 1.14218121490 1.69388380436 0.00000000000 1.19407547165 1.77668419054 0.00000000000 1.24901370651 1.86620785528 0.00000000000 1.30703559813 1.96287803361 0.00000000000 1.36818082515 2.06711796050 0.00000000000 1.43248906622 2.17935087097 0.00000000000 1.50000000000 2.30000000000 0.00000000000 0.00000000000 0.00000000000 0.00000000000 0.02171515213 0.03593898589 0.00000000000 0.04338857228 0.07045468194 0.00000000000 0.06502957307 0.10366105826 0.00000000000 0.08664746715 0.13567208495 0.00000000000 0.10825156714 0.16660173211 0.00000000000 0.12985118568 0.19656396985 0.00000000000 0.15145563540 0.22567276826 0.00000000000 0.17307422895 0.25404209746 0.00000000000 0.19471627895 0.28178592754 0.00000000000 0.21639109805 0.30901822862 0.00000000000 0.23810799886 0.33585297078 0.00000000000 0.25987629404 0.36240412414 0.00000000000 0.28170529622 0.38878565879 0.00000000000 0.30360431802 0.41511154485 0.00000000000 0.32557725106 0.44148641206 0.00000000000 0.34758080400 0.46793359447 0.00000000000 0.36954739128 0.49443456752 0.00000000000 0.39140922657 0.52097046069 0.00000000000 0.41309852354 0.54752240348 0.00000000000 0.43454749584 0.57407152536 0.00000000000 0.45568835716 0.60059895584 0.00000000000 0.47645332115 0.62708582439 0.00000000000 0.49677460149 0.65351326051 0.00000000000 0.51658441184 0.67986239368 0.00000000000 0.53581496587 0.70611435340 0.00000000000 0.55439847724 0.73225026915 0.00000000000 0.57226715963 0.75825127043 0.00000000000 0.58935322670 0.78409848671 0.00000000000 0.60559504884 0.80977727632 0.00000000000 0.62107260118 0.83537026088 0.00000000000 0.63600746355 0.86105732526 0.00000000000 0.65062737252 0.88702258317 0.00000000000 0.66516006466 0.91345014834 0.00000000000 0.67983327655 0.94052413449 0.00000000000 0.69487474475 0.96842865532 0.00000000000 0.71051220582 0.99734782457 0.00000000000 0.72697339635 1.02746575594 0.00000000000 0.74448605289 1.05896656316 0.00000000000 0.76327791201 1.09203435995 0.00000000000 0.78357671029 1.12685326002 0.00000000000 0.80561018429 1.16360737709 0.00000000000 0.82960607059 1.20248082488 0.00000000000 0.85579167433 1.24365844554 0.00000000000 0.88434209968 1.28741322145 0.00000000000 0.91533106868 1.33418931642 0.00000000000 0.94882065524 1.38445056194 0.00000000000 0.98487293324 1.43866078947 0.00000000000 1.02354997659 1.49728383050 0.00000000000 1.06491385918 1.56078351649 0.00000000000 1.10902665490 1.62962367892 0.00000000000 1.15595043765 1.70426814926 0.00000000000 1.20574728134 1.78518075898 0.00000000000 1.25847925984 1.87282533957 0.00000000000 1.31420844706 1.96766572249 0.00000000000 1.37299691690 2.07016573922 0.00000000000 1.43490674325 2.18078922123 0.00000000000 1.50000000000 2.30000000000 0.00000000000 0.00000000000 0.00000000000 0.00000000000 0.02435610871 0.03702585693 0.00000000000 0.04848514250 0.07265748637 0.00000000000 0.07239557023 0.10699283160 0.00000000000 0.09609586073 0.14012983594 0.00000000000 0.11959448284 0.17216644271 0.00000000000 0.14289990541 0.20320059519 0.00000000000 0.16602059728 0.23333023671 0.00000000000 0.18896502729 0.26265331057 0.00000000000 0.21174166429 0.29126776007 0.00000000000 0.23435897711 0.31927152852 0.00000000000 0.25682543459 0.34676255923 0.00000000000 0.27914950559 0.37383879551 0.00000000000 0.30133965893 0.40059818067 0.00000000000 0.32340436347 0.42713865800 0.00000000000 0.34534872961 0.45355185043 0.00000000000 0.36714863692 0.47987437011 0.00000000000 0.38876491422 0.50611450448 0.00000000000 0.41015826593 0.53228030689 0.00000000000 0.43128939646 0.55837983070 0.00000000000 0.45211901025 0.58442112928 0.00000000000 0.47260781171 0.61041225597 0.00000000000 0.49271650527 0.63636126413 0.00000000000 0.51240579535 0.66227620712 0.00000000000 0.53163638637 0.68816513830 0.00000000000 0.55036898276 0.71403611102 0.00000000000 0.56856428894 0.73989717864 0.00000000000 0.58618300932 0.76575639452 0.00000000000 0.60318584834 0.79162181201 0.00000000000 0.61953839767 0.81750449841 0.00000000000 0.63531865576 0.84348484157 0.00000000000 0.65071702785 0.86971254988 0.00000000000 0.66592880645 0.89634034569 0.00000000000 0.68114928404 0.92352095133 0.00000000000 0.69657375312 0.95140708916 0.00000000000 0.71239750618 0.98015148150 0.00000000000 0.72881583572 1.00990685069 0.00000000000 0.74602403422 1.04082591908 0.00000000000 0.76421739419 1.07306140900 0.00000000000 0.78359120811 1.10676604279 0.00000000000 0.80434076847 1.14209254280 0.00000000000 0.82666136778 1.17919363136 0.00000000000 0.85074829853 1.21822203081 0.00000000000 0.87679654644 1.25933133406 0.00000000000 0.90496397855 1.30278047299 0.00000000000 0.93533637186 1.34903296346 0.00000000000 0.96799122070 1.39857582671 0.00000000000 1.00300601940 1.45189608397 0.00000000000 1.04045826228 1.50948075648 0.00000000000 1.08042544367 1.57181686549 0.00000000000 1.12298505789 1.63939143222 0.00000000000 1.16821459926 1.71269147793 0.00000000000 1.21619156212 1.79220402385 0.00000000000 1.26699344078 1.87841609122 0.00000000000 1.32069772957 1.97181470128 0.00000000000 1.37738192283 2.07288687527 0.00000000000 1.43712351486 2.18211963443 0.00000000000 1.50000000000 2.30000000000 0.00000000000 0.00000000000 0.00000000000 0.00000000000 0.02679427593 0.03780872341 0.00000000000 0.05318161134 0.07427520856 0.00000000000 0.07917164492 0.10948198336 0.00000000000 0.10477401537 0.14351157571 0.00000000000 0.12999836139 0.17644651352 0.00000000000 0.15485432169 0.20836932468 0.00000000000 0.17935153498 0.23936253710 0.00000000000 0.20349963994 0.26950867869 0.00000000000 0.22730827528 0.29889027736 0.00000000000 0.25078707971 0.32758986100 0.00000000000 0.27394569192 0.35568995752 0.00000