<?xml version="1.0"?>
<VTKFile type="StructuredGrid" version="0.1">
<StructuredGrid WholeExtent="0 50 0 39 0 0">
<Piece Extent="0 50 0 39 0 0">
<PointData>
<DataArray type="Float32" Name="Displacement" format="ascii" NumberOfComponents="3">
0.00000000000 0.00000000000 0.00000000000 -0.13951106860 0.34667211085 0.00000000000 -0.26164328094 0.63648869907 0.00000000000 -0.36771940745 0.87478723831 0.00000000000 -0.45906221854 1.06690520219 0.00000000000 -0.53699448464 1.21818006433 0.00000000000 -0.60283897618 1.33394929837 0.00000000000 -0.65791846356 1.41955037794 0.00000000000 -0.70355571722 1.48032077666 0.00000000000 -0.74107350758 1.52159796816 0.00000000000 -0.77179460505 1.54871942607 0.00000000000 -0.79704178006 1.56702262403 0.00000000000 -0.81813780303 1.58184503565 0.00000000000 -0.83638515923 1.59840724048 0.00000000000 -0.85261977512 1.61924125375 0.00000000000 -0.86721101841 1.64419052641 0.00000000000 -0.88050797164 1.67298161533 0.00000000000 -0.89285971734 1.70534107736 0.00000000000 -0.90461533806 1.74099546935 0.00000000000 -0.91612391632 1.77967134817 0.00000000000 -0.92773453466 1.82109527067 0.00000000000 -0.93979627563 1.86499379370 0.00000000000 -0.95265822176 1.91109347412 0.00000000000 -0.96666945558 1.95912086879 0.00000000000 -0.98217905964 2.00880253456 0.00000000000 -0.99953611647 2.05986502830 0.00000000000 -1.01895146264 2.11199900480 0.00000000000 -1.04008295091 2.16475151066 0.00000000000 -1.06245018804 2.21763369044 0.00000000000 -1.08557278083 2.27015668867 0.00000000000 -1.10897033605 2.32183164992 0.00000000000 -1.13216246048 2.37216971872 0.00000000000 -1.15466876091 2.42068203963 0.00000000000 -1.17600884412 2.46687975719 0.00000000000 -1.19570231688 2.51027401595 0.00000000000 -1.21326878599 2.55037596047 0.00000000000 -1.22822785821 2.58669673528 0.00000000000 -1.24009914034 2.61874748494 0.00000000000 -1.24843771647 2.64615736655 0.00000000000 -1.25361464887 2.67126982617 0.00000000000 -1.25681697800 2.69914259878 0.00000000000 -1.25926722165 2.73495143193 0.00000000000 -1.26218789758 2.78387207317 0.00000000000 -1.26680152356 2.85108027004 0.00000000000 -1.27433061737 2.94175177010 0.00000000000 -1.28599769679 3.06106232089 0.00000000000 -1.30302527958 3.21418766996 0.00000000000 -1.32663588353 3.40630356485 0.00000000000 -1.35805202640 3.64258575313 0.00000000000 -1.39849622596 3.92820998233 0.00000000000 -1.44919100000 4.26835200000 0.00000000000 0.00000000000 0.00000000000 0.00000000000 -0.12218265571 0.29800571446 0.00000000000 -0.23146109965 0.55225681278 0.00000000000 -0.32867590824 0.76667885225 0.00000000000 -0.41466765792 0.94519739017 0.00000000000 -0.49027692511 1.09173798384 0.00000000000 -0.55634428625 1.21022619056 0.00000000000 -0.61371031777 1.30458756762 0.00000000000 -0.66321559609 1.37874767231 0.00000000000 -0.70570069765 1.43663206194 0.00000000000 -0.74200619888 1.48216629380 0.00000000000 -0.77297267621 1.51927592519 0.00000000000 -0.79944070606 1.55188651340 0.00000000000 -0.82224259548 1.58384098815 0.00000000000 -0.84202045532 1.61708184474 0.00000000000 -0.85922620026 1.65165114408 0.00000000000 -0.87430347561 1.68750831947 0.00000000000 -0.88769592665 1.72461280424 0.00000000000 -0.89984719868 1.76292403170 0.00000000000 -0.91120093698 1.80240143517 0.00000000000 -0.92220078685 1.84300444796 0.00000000000 -0.93329039357 1.88469250339 0.00000000000 -0.94491340245 1.92742503478 0.00000000000 -0.95751345876 1.97116147544 0.00000000000 -0.97153420780 2.01586125869 0.00000000000 -0.98741929487 2.06148381784 0.00000000000 -1.00546326766 2.10795975634 0.00000000000 -1.02536428356 2.15510435819 0.00000000000 -1.04667140236 2.20270407751 0.00000000000 -1.06893368386 2.25054536842 0.00000000000 -1.09170018784 2.29841468504 0.00000000000 -1.11451997409 2.34609848149 0.00000000000 -1.13694210242 2.39338321190 0.00000000000 -1.15851563262 2.44005533039 0.00000000000 -1.17878962447 2.48590129109 0.00000000000 -1.19731313777 2.53070754811 0.00000000000 -1.21363523232 2.57426055558 0.00000000000 -1.22730496790 2.61634676762 0.00000000000 -1.23790281052 2.65683811204 0.00000000000 -1.24573156885 2.69757241125 0.00000000000 -1.25181639425 2.74235338229 0.00000000000 -1.25721384428 2.79507021586 0.00000000000 -1.26298047649 2.85961210269 0.00000000000 -1.27017284844 2.93986823349 0.00000000000 -1.27984751770 3.03972779896 0.00000000000 -1.29306104182 3.16307998983 0.00000000000 -1.31086997837 3.31381399680 0.00000000000 -1.33433088491 3.49581901059 0.00000000000 -1.36450031898 3.71298422191 0.00000000000 -1.40243483816 3.96919882148 0.00000000000 -1.44919100000 4.26835200000 0.00000000000 0.00000000000 0.00000000000 0.00000000000 -0.10813865634 0.25903289526 0.00000000000 -0.20684390984 0.48459636521 0.00000000000 -0.29659166716 0.67951837571 0.00000000000 -0.37785783492 0.84662689261 0.00000000000 -0.45111831979 0.98874988176 0.00000000000 -0.51684902841 1.10871530902 0.00000000000 -0.57552586743 1.20935114025 0.00000000000 -0.62762474350 1.29348534130 0.00000000000 -0.67362156325 1.36394587802 0.00000000000 -0.71399223335 1.42356071628 0.00000000000 -0.74921266044 1.47515782192 0.00000000000 -0.77975875116 1.52156516080 0.00000000000 -0.80610696112 1.56555455765 0.00000000000 -0.82874637190 1.60860659136 0.00000000000 -0.84817869104 1.65091059494 0.00000000000 -0.86490617507 1.69259976032 0.00000000000 -0.87943108048 1.73380727938 0.00000000000 -0.89225566379 1.77466634405 0.00000000000 -0.90388218150 1.81531014622 0.00000000000 -0.91481289012 1.85587187780 0.00000000000 -0.92555004616 1.89648473070 0.00000000000 -0.93659590614 1.93728189682 0.00000000000 -0.94845272655 1.97839656808 0.00000000000 -0.96162276391 2.01996193636 0.00000000000 -0.97660827473 2.06211119359 0.00000000000 -0.99375815301 2.10495377017 0.00000000000 -1.01280784275 2.14850405057 0.00000000000 -1.03333942546 2.19275265774 0.00000000000 -1.05493498263 2.23769021466 0.00000000000 -1.07717659578 2.28330734428 0.00000000000 -1.09964634638 2.32959466958 0.00000000000 -1.12192631596 2.37654281352 0.00000000000 -1.14359858600 2.42414239906 0.00000000000 -1.16424523801 2.47238404917 0.00000000000 -1.18344835349 2.52125838682 0.00000000000 -1.20079001393 2.57075603496 0.00000000000 -1.21585230085 2.62086761657 0.00000000000 -1.22824514245 2.67164419829 0.00000000000 -1.23821894132 2.72452705129 0.00000000000 -1.24666457444 2.78234765128 0.00000000000 -1.25450076550 2.84799791764 0.00000000000 -1.26264623817 2.92436976976 0.00000000000 -1.27201971614 3.01435512701 0.00000000000 -1.28353992311 3.12084590880 0.00000000000 -1.29812558274 3.24673403449 0.00000000000 -1.31669541874 3.39491142347 0.00000000000 -1.34016815477 3.56826999513 0.00000000000 -1.36946251454 3.76970166885 0.00000000000 -1.40549722172 4.00209836401 0.00000000000 -1.44919100000 4.26835200000 0.00000000000 0.00000000000 0.00000000000 0.00000000000 -0.09700093397 0.22861204112 0.00000000000 -0.18715795621 0.43156543150 0.00000000000 -0.27068510828 0.61086632847 0.00000000000 -0.34779643176 0.76852088941 0.00000000000 -0.41870596819 0.90653527166 0.00000000000 -0.48362775913 1.02691563258 0.00000000000 -0.54277584616 1.13166812953 0.00000000000 -0.59636427082 1.22279891986 0.00000000000 -0.64460707468 1.30231416093 0.00000000000 -0.68771829931 1.37222001010 0.00000000000 -0.72591198625 1.43452262472 0.00000000000 -0.75940217707 1.49122816215 0.00000000000 -0.78840949370 1.54430630242 0.00000000000 -0.81330590661 1.59488774744 0.00000000000 -0.83461473479 1.64326422094 0.00000000000 -0.85286587761 1.68969096933 0.00000000000 -0.86858923443 1.73442323905 0.00000000000 -0.88231470462 1.77771627651 0.00000000000 -0.89457218755 1.81982532814 0.00000000000 -0.90589158257 1.86100564037 0.00000000000 -0.91680278907 1.90151245961 0.00000000000 -0.92783570639 1.94160103229 0.00000000000 -0.93952023392 1.98152660483 0.00000000000 -0.95238627102 2.02154442365 0.00000000000 -0.96696371704 2.06190973519 0.00000000000 -0.98363046913 2.10285744132 0.00000000000 -1.00215641548 2.14454106582 0.00000000000 -1.02215944204 2.18709378793 0.00000000000 -1.04325743478 2.23064878686 0.00000000000 -1.06506827965 2.27533924186 0.00000000000 -1.08720986260 2.32129833217 0.00000000000 -1.10930006961 2.36865923701 0.00000000000 -1.13095678662 2.41755513563 0.00000000000 -1.15179789959 2.46811920725 0.00000000000 -1.17144129449 2.52048463111 0.00000000000 -1.18950485727 2.57478458644 0.00000000000 -1.20560647388 2.63115225248 0.00000000000 -1.21938877670 2.68976277082 0.00000000000 -1.23106356527 2.75175641732 0.00000000000 -1.24141180635 2.81923860210 0.00000000000 -1.25123921310 2.89435669762 0.00000000000 -1.26135149868 2.97925807638 0.00000000000 -1.27255437624 3.07609011084 0.00000000000 -1.28565355895 3.18700017349 0.00000000000 -1.30145475995 3.31413563680 0.00000000000 -1.32076369242 3.45964387325 0.00000000000 -1.34438606950 3.62567225532 0.00000000000 -1.37312760435 3.81436815548 0.00000000000 -1.40779401013 4.02787894622 0.00000000000 -1.44919100000 4.26835200000 0.00000000000 0.00000000000 0.00000000000 0.00000000000 -0.08839135206 0.20560153992 0.00000000000 -0.17176948341 0.39122208674 0.00000000000 -0.25017465571 0.55828323031 0.00000000000 -0.32364713062 0.70820656049 0.00000000000 -0.39222716979 0.84241366712 0.00000000000 -0.45595503488 0.96232614005 0.00000000000 -0.51487098755 1.06936556914 0.00000000000 -0.56901528945 1.16495354424 0.00000000000 -0.61842820225 1.25051165520 0.00000000000 -0.66314998759 1.32746149186 0.00000000000 -0.70322090713 1.39722464409 0.00000000000 -0.73868122254 1.46122270173 0.00000000000 -0.76958143078 1.52085457589 0.00000000000 -0.79620744122 1.57699756685 0.00000000000 -0.81908057556 1.63000736400 0.00000000000 -0.83873239085 1.68021697799 0.00000000000 -0.85569444413 1.72795941951 0.00000000000 -0.87049829243 1.77356769921 0.00000000000 -0.88367549281 1.81737482777 0.00000000000 -0.89575760230 1.85971381584 0.00000000000 -0.90727617793 1.90091767409 0.00000000000 -0.91876277676 1.94131941319 0.00000000000 -0.93074895582 1.98125204381 0.00000000000 -0.94376627215 2.02104857661 0.00000000000 -0.95834628280 2.06104202226 0.00000000000 -0.97487456649 2.10154716483 0.00000000000 -0.99315278876 2.14280588199 0.00000000000 -1.01283663682 2.18504182485 0.00000000000 -1.03358179790 2.22847864448 0.00000000000 -1.05504395922 2.27333999198 0.00000000000 -1.07687880800 2.31984951843 0.00000000000 -1.09874203146 2.36823087492 0.00000000000 -1.12028931682 2.41870771253 0.00000000000 -1.14117635130 2.47150368237 0.00000000000 -1.16105882213 2.52684243551 0.00000000000 -1.17959241652 2.58494762304 0.00000000000 -1.19643282170 2.64604289605 0.00000000000 -1.21125777772 2.71038097517 0.00000000000 -1.22425223968 2.77888318039 0.00000000000 -1.23610837773 2.85313943109 0.00000000000 -1.24754041486 2.93476871618 0.00000000000 -1.25926257406 3.02539002458 0.00000000000 -1.27198907830 3.12662234519 0.00000000000 -1.28643415058 3.24008466692 0.00000000000 -1.30331201387 3.36739597869 0.00000000000 -1.32333689116 3.51017526941 0.00000000000 -1.34722300543 3.67004152799 0.00000000000 -1.37568457967 3.84861374334 0.00000000000 -1.40943583687 4.04751090437 0.00000000000 -1.44919100000 4.26835200000 0.00000000000 0.00000000000 0.00000000000 0.00000000000 -0.08193177410 0.18885977952 0.00000000000 -0.16004473614 0.36162440606 0.00000000000 -0.23427873353 0.51932960101 0.00000000000 -0.30457361372 0.66301108577 0.00000000000 -0.37086922411 0.79370458172 0.00000000000 -0.43310541213 0.91244581026 0.00000000000 -0.49122202521 1.02027049278 0.00000000000 -0.54515891078 1.11821435068 0.00000000000 -0.59485591624 1.20731310534 0.00000000000 -0.64025288904 1.28860247816 0.00000000000 -0.68128967659 1.36311819053 0.00000000000 -0.71790612631 1.43189596384 0.00000000000 -0.75005400991 1.49595773150 0.00000000000 -0.77795935746 1.55600830344 0.00000000000 -0.80212245738 1.61243536605 0.00000000000 -0.82305552238 1.66561281777 0.00000000000 -0.84127076518 1.71591455703 0.00000000000 -0.85728039847 1.76371448226 0.00000000000 -0.87159663497 1.80938649191 0.00000000000 -0.88473168739 1.85330448438 0.00000000000 -0.89719776843 1.89584235813 0.00000000000 -0.90950709080 1.93737401158 0.00000000000 -0.92217186721 1.97827334316 0.00000000000 -0.93570431037 2.01891425130 0.00000000000 -0.95061663299 2.05967063444 0.00000000000 -0.96728479554 2.10089933572 0.00000000000 -0.98553974960 2.14288897711 0.00000000000 -1.00507619451 2.18591112530 0.00000000000 -1.02558882962 2.23023734698 0.00000000000 -1.04677235428 2.27613920882 0.00000000000 -1.06832146782 2.32388827752 0.00000000000 -1.08993086959 2.37375611975 0.00000000000 -1.11129525895 2.42601430221 0.00000000000 -1.13210933522 2.48093439157 0.00000000000 -1.15206779775 2.53878795453 0.00000000000 -1.17086534590 2.59984655777 0.00000000000 -1.18819667901 2.66438176798 0.00000000000 -1.20377620997 2.73268595685 0.00000000000 -1.21777176355 2.80553001153 0.00000000000 -1.23080457636 2.88416333461 0.00000000000 -1.24351559857 2.96985613369 0.00000000000 -1.25654578036 3.06387861638 0.00000000000 -1.27053607189 3.16750099027 0.00000000000 -1.28612742335 3.28199346297 0.00000000000 -1.30396078489 3.40862624209 0.00000000000 -1.32467710670 3.54866953522 0.00000000000 -1.34891733894 3.70339354997 0.00000000000 -1.37732243179 3.87406849395 0.00000000000 -1.41053333542 4.06196457476 0.00000000000 -1.44919100000 4.26835200000 0.00000000000 0.00000000000 0.00000000000 0.00000000000 -0.07724406356 0.17724514779 0.00000000000 -0.15134995906 0.34083046456 0.00000000000 -0.22221576584 0.49156596034 0.00000000000 -0.28973956324 0.63026164515 0.00000000000 -0.35381943063 0.75772752904 0.00000000000 -0.41435344735 0.87477362202 0.00000000000 -0.47123969275 0.98220993414 0.00000000000 -0.52437624618 1.08084647542 0.00000000000 -0.57366118698 1.17149325589 0.00000000000 -0.61899259451 1.25496028558 0.00000000000 -0.66026854811 1.33205757453 0.00000000000 -0.69738712713 1.40359513277 0.00000000000 -0.73025846864 1.47037412268 0.00000000000 -0.75907003709 1.53299221105 0.00000000000 -0.78428662430 1.59184356902 0.00000000000 -0.80638507982 1.64731352013 0.00000000000 -0.82584225320 1.69978738788 0.00000000000 -0.84313499398 1.74965049579 0.00000000000 -0.85874015171 1.79728816739 0.00000000000 -0.87313457594 1.84308572619 0.00000000000 -0.88679511621 1.88742849571 0.00000000000 -0.90019862206 1.93070179947 0.00000000000 -0.91382194305 1.97329096098 0.00000000000 -0.92814192871 2.01558130378 0.00000000000 -0.94363542860 2.05795815137 0.00000000000 -0.96065550673 2.10079034905 0.00000000000 -0.97906008501 2.14438082923 0.00000000000 -0.99858329982 2.18901604609 0.00000000000 -1.01895928756 2.23498245382 0.00000000000 -1.03992218460 2.28256650660 0.00000000000 -1.06120612732 2.33205465861 0.00000000000 -1.08254525211 2.38373336405 0.00000000000 -1.10367369535 2.43788907709 0.00000000000 -1.12432559343 2.49480825191 0.00000000000 -1.14423508272 2.55477734271 0.00000000000 -1.16313629962 2.61808280367 0.00000000000 -1.18076338050 2.68501108896 0.00000000000 -1.19686813790 2.75586486139 0.00000000000 -1.21160893588 2.83131958179 0.00000000000 -1.22555069001 2.91242350900 0.00000000000 -1.23927599201 3.00024111051 0.00000000000 -1.25336743363 3.09583685379 0.00000000000 -1.26840760659 3.20027520630 0.00000000000 -1.28497910262 3.31462063552 0.00000000000 -1.30366451344 3.43993760891 0.00000000000 -1.32504643079 3.57729059395 0.00000000000 -1.34970744639 3.72774405811 0.00000000000 -1.37823015197 3.89236246886 0.00000000000 -1.41119713926 4.07221029366 0.00000000000 -1.44919100000 4.26835200000 0.00000000000 0.00000000000 0.00000000000 0.00000000000 -0.07395008392 0.16961603261 0.00000000000 -0.14505139685 0.32689833736 0.00000000000 -0.21320417671 0.47255282807 0.00000000000 -0.27830866141 0.60728541856 0.00000000000 -0.34026508887 0.73180202265 0.00000000000 -0.39897369702 0.84680855416 0.00000000000 -0.45433472377 0.95301092690 0.00000000000 -0.50624840704 1.05111505470 0.00000000000 -0.55461498476 1.14182685137 0.00000000000 -0.59933469483 1.22585223074 0.00000000000 -0.64030777519 1.30389710661 0.00000000000 -0.67743446375 1.37666739281 0.00000000000 -0.71062604453 1.44486210286 0.00000000000 -0.74004786186 1.50902154354 0.00000000000 -0.76611932036 1.56952731486 0.00000000000 -0.78927087076 1.62675411654 0.00000000000 -0.80993296381 1.68107664831 0.00000000000 -0.82853605021 1.73286960990 0.00000000000 -0.84551058072 1.78250770103 0.00000000000 -0.86128700604 1.83036562142 0.00000000000 -0.87629577693 1.87681807080 0.00000000000 -0.89096734410 1.92223974889 0.00000000000 -0.90573215828 1.96700535541 0.00000000000 -0.92102067021 2.01148959009 0.00000000000 -0.93726333062 2.05606715266 0.00000000000 -0.95478105051 2.10109659984 0.00000000000 -0.97345658199 2.14687191637 0.00000000000 -0.99306313747 2.19367094399 0.00000000000 -1.01337392932 2.24177152446 0.00000000000 -1.03416216995 2.29145149951 0.00000000000 -1.05520107174 2.34298871089 0.00000000000 -1.07626384709 2.39666100034 0.00000000000 -1.09712370839 2.45274620960 0.00000000000 -1.11755386802 2.51152218043 0.00000000000 -1.13732753839 2.57326675456 0.00000000000 -1.15621793188 2.63825777373 0.00000000000 -1.17399826088 2.70677307970 0.00000000000 -1.19045762596 2.77910483433 0.00000000000 -1.20575055565 2.85587456219 0.00000000000 -1.22039700643 2.93803315061 0.00000000000 -1.23493282297 3.02654580702 0.00000000000 -1.24989384993 3.12237773884 0.00000000000 -1.26581593196 3.22649415350 0.00000000000 -1.28323491374 3.33986025844 0.00000000000 -1.30268663992 3.46344126109 0.00000000000 -1.32470695516 3.59820236887 0.00000000000 -1.34983170413 3.74510878923 0.00000000000 -1.37859673148 3.90512572958 0.00000000000 -1.41153788189 4.07921839736 0.00000000000 -1.44919100000 4.26835200000 0.00000000000 0.00000000000 0.00000000000 0.00000000000 -0.07167169866 0.16483082184 0.00000000000 -0.14051529420 0.31788609956 0.00000000000 -0.20646239024 0.45985072398 0.00000000000 -0.26944459041 0.59140958591 0.00000000000 -0.32939349832 0.71324757614 0.00000000000 -0.38624071760 0.82604958549 0.00000000000 -0.43991785187 0.93050050477 0.00000000000 -0.49035650476 1.02728522477 0.00000000000 -0.53748827988 1.11708863632 0.00000000000 -0.58124478086 1.20059563021 0.00000000000 -0.62155761133 1.27849109725 0.00000000000 -0.65835837491 1.35145992826 0.00000000000 -0.69158797512 1.42018002548 0.00000000000 -0.72140121351 1.48516855476 0.00000000000 -0.74816678960 1.54678194548 0.00000000000 -0.77226270282 1.60536963848 0.00000000000 -0.79406695261 1.66128107461 0.00000000000 -0.81395753841 1.71486569473 0.00000000000 -0.83231245966 1.76647293966 0.00000000000 -0.84950971579 1.81645225027 0.00000000000 -0.86592730625 1.86515306739 0.00000000000 -0.88194323046 1.91292483187 0.00000000000 -0.89793548788 1.96011698456 0.00000000000 -0.91428207792 2.00707896631 0.00000000000 -0.93136100004 2.05416021796 0.00000000000 -0.94945577734 2.10169448313 0.00000000000 -0.96847202757 2.14995271657 0.00000000000 -0.98822089215 2.19919017581 0.00000000000 -1.00851351253 2.24966211836 0.00000000000 -1.02916103012 2.30162380175 0.00000000000 -1.04997458634 2.35533048351 0.00000000000 -1.07076532262 2.41103742115 0.00000000000 -1.09134438039 2.46899987219 0.00000000000 -1.11152290108 2.52947309417 0.00000000000 -1.13111202610 2.59271234459 0.00000000000 -1.14992289688 2.65897288100 0.00000000000 -1.16776665485 2.72850996090 0.00000000000 -1.18446873861 2.80159302118 0.00000000000 -1.20018342186 2.87881762379 0.00000000000 -1.21539381341 2.96110545579 0.00000000000 -1.23059731923 3.04939238357 0.00000000000 -1.24629134529 3.14461427354 0.00000000000 -1.26297329758 3.24770699209 0.00000000000 -1.28114058207 3.35960640563 0.00000000000 -1.30129060474 3.48124838055 0.00000000000 -1.32392077157 3.61356878326 0.00000000000 -1.34952848853 3.75750348017 0.00000000000 -1.37861116160 3.91398833765 0.00000000000 -1.41166619677 4.08395922213 0.00000000000 -1.44919100000 4.26835200000 0.00000000000 0.00000000000 0.00000000000 0.00000000000 -0.07003077125 0.16174790335 0.00000000000 -0.13710789578 0.31185182628 0.00000000000 -0.20120883053 0.45102016785 0.00000000000 -0.26231103244 0.57996132710 0.00000000000 -0.32039195847 0.69938370308 0.00000000000 -0.37542906556 0.80999569484 0.00000000000 -0.42739981066 0.91250570142 0.00000000000 -0.47628165071 1.00762212188 0.00000000000 -0.52205204265 1.09605335525 0.00000000000 -0.56468844345 1.17850780060 0.00000000000 -0.60416831003 1.25569385697 0.00000000000 -0.64046909935 1.32831992340 0.00000000000 -0.67357549798 1.39708624398 0.00000000000 -0.70363847381 1.46250549857 0.00000000000 -0.73097527606 1.52490280282 0.00000000000 -0.75591038359 1.58459511742 0.00000000000 -0.77876827523 1.64189940304 0.00000000000 -0.79987342982 1.69713262038 0.00000000000 -0.81955032623 1.75061173010 0.00000000000 -0.83812344328 1.80265369290 0.00000000000 -0.85591725983 1.85357546945 0.00000000000 -0.87325625471 1.90369402045 0.00000000000 -0.89046490678 1.95332630656 0.00000000000 -0.90786769488 2.00278928848 0.00000000000 -0.92578909786 2.05239992689 0.00000000000 -0.94447403767 2.10246039396 0.00000000000 -0.96384920873 2.15321370788 0.00000000000 -0.98376174860 2.20488809833 0.00000000000 -1.00405879480 2.25771179499 0.00000000000 -1.02458748487 2.31191302754 0.00000000000 -1.04519495636 2.36772002565 0.00000000000 -1.06572834680 2.42536101900 0.00000000000 -1.08603479372 2.48506423729 0.00000000000 -1.10596143468 2.54705791017 0.00000000000 -1.12535540720 2.61157026734 0.00000000000 -1.14406384883 2.67882953848 0.00000000000 -1.16193389711 2.74906395326 0.00000000000 -1.17882554030 2.82251656747 0.00000000000 -1.19489433351 2.89977143762 0.00000000000 -1.21059139871 2.98175362088 0.00000000000 -1.22638070856 3.06940300054 0.00000000000 -1.24272623577 3.16365945991 0.00000000000 -1.26009195301 3.26546288228 0.00000000000 -1.27894183296 3.37575315095 0.00000000000 -1.29973984831 3.49547014922 0.00000000000 -1.32294997174 3.62555376039 0.00000000000 -1.34903617594 3.76694386776 0.00000000000 -1.37846243360 3.92058035461 0.00000000000 -1.41169271739 4.08740310426 0.00000000000 -1.44919100000 4.26835200000 0.00000000000 0.00000000000 0.00000000000 0.00000000000 -0.06865014373 0.15922880359 0.00000000000 -0.13419706854 0.30685890619 0.00000000000 -0.19666389394 0.44362831416 0.00000000000 -0.25607373940 0.57027503383 0.00000000000 -0.31244972444 0.68753707155 0.00000000000 -0.36581496854 0.79615243368 0.00000000000 -0.41619259120 0.89685912655 0.00000000000 -0.46360571191 0.99039515652 0.00000000000 -0.50807745018 1.07749852993 0.00000000000 -0.54963092549 1.15890725313 0.00000000000 -0.58828925734 1.23535933245 0.00000000000 -0.62407556523 1.30759277426 0.00000000000 -0.65701821319 1.37633614002 0.00000000000 -0.68726618961 1.44210075899 0.00000000000 -0.71508910723 1.50518072823 0.00000000000 -0.74076182334 1.56586069991 0.00000000000 -0.76455919521 1.62442532621 0.00000000000 -0.78675608012 1.68115925931 0.00000000000 -0.80762733536 1.73634715139 0.00000000000 -0.82744781821 1.79027365461 0.00000000000 -0.84649238595 1.84322342117 0.00000000000 -0.86503589587 1.89548110324 0.00000000000 -0.88335320523 1.94733135299 0.00000000000 -0.90171917132 1.99905882260 0.00000000000 -0.92040865144 2.05094816425 0.00000000000 -0.93963076279 2.10327096401 0.00000000000 -0.95933166240 2.15624654354 0.00000000000 -0.97939176724 2.21008115839 0.00000000000 -0.99969149426 2.26498106410 0.00000000000 -1.02011126043 2.32115251624 0.00000000000 -1.04053148272 2.37880177034 0.00000000000 -1.06083257809 2.43813508196 0.00000000000 -1.08089496349 2.49935870666 0.00000000000 -1.10059905590 2.56267889997 0.00000000000 -1.11982527228 2.62830191746 0.00000000000 -1.13845402959 2.69643401467 0.00000000000 -1.15636574480 2.76728144715 0.00000000000 -1.17345233144 2.84106577363 0.00000000000 -1.18987012443 2.91836052592 0.00000000000 -1.20603987999 3.00009120890 0.00000000000 -1.22239385097 3.08719863064 0.00000000000 -1.23936429019 3.18062359918 0.00000000000 -1.25738345047 3.28130692259 0.00000000000 -1.27688358466 3.39018940894 0.00000000000 -1.29829694557 3.50821186628 0.00000000000 -1.32205578603 3.63631510267 0.00000000000 -1.34859235888 3.77543992618 0.00000000000 -1.37833891694 3.92652714486 0.00000000000 -1.41172771303 4.09051756678 0.00000000000 -1.44919100000 4.26835200000 0.00000000000 0.00000000000 0.00000000000 0.00000000000 -0.06727106388 0.15651481610 0.00000000000 -0.13134697552 0.30161366790 0.00000000000 -0.19228662312 0.43604511609 0.00000000000 -0.25014889485 0.56055772132 0.00000000000 -0.30499267889 0.67590004427 0.00000000000 -0.35687686343 0.78282064561 0.00000000000 -0.40586033665 0.88206808601 0.00000000000 -0.45200198672 0.97439092613 0.00000000000 -0.49536070184 1.06053772665 0.00000000000 -0.53599537018 1.14125704823 0.00000000000 -0.57396487993 1.21729745155 0.00000000000 -0.60932811925 1.28940749727 0.00000000000 -0.64214758923 1.35832551324 0.00000000000 -0.67256888720 1.42455447228 0.00000000000 -0.70082070677 1.48836199223 0.00000000000 -0.72713535445 1.55000545806 0.00000000000 -0.75174513672 1.60974225478 0.00000000000 -0.77488236009 1.66782976737 0.00000000000 -0.79677933107 1.72452538084 0.00000000000 -0.81766835613 1.78008648018 0.00000000000 -0.83778174179 1.83477045037 0.00000000000 -0.85735179454 1.88883467642 0.00000000000 -0.87661082088 1.94253654331 0.00000000000 -0.89579112731 1.99613343604 0.00000000000 -0.91512502032 2.04988273961 0.00000000000 -0.93479116522 2.10403145868 0.00000000000 -0.95475366253 2.15878507662 0.00000000000 -0.97492297158 2.21433869648 0.00000000000 -0.99520955171 2.27088742132 0.00000000000 -1.01552386222 2.32862635418 0.00000000000 -1.03577636247 2.38775059810 0.00000000000 -1.05587751177 2.44845525614 0.00000000000 -1.07573776945 2.51093543134 0.00000000000 -1.09526759485 2.57538622675 0.00000000000 -1.11437744729 2.64200274542 0.00000000000 -1.13297778609 2.71098009040 0.00000000000 -1.15097907060 2.78251336474 0.00000000000 -1.16830196494 2.85681268233 0.00000000000 -1.18510184392 2.93443340675 0.00000000000 -1.20176879301 3.01627615124 0.00000000000 -1.21870310247 3.10325653989 0.00000000000 -1.23630506259 3.19629019678 0.00000000000 -1.25497496363 3.29629274602 0.00000000000 -1.27511309588 3.40417981169 0.00000000000 -1.29711974960 3.52086701789 0.00000000000 -1.32139521508 3.64726998871 0.00000000000 -1.34833978258 3.78430434824 0.00000000000 -1.37835374239 3.93288572057 0.00000000000 -1.41183738477 4.09392972979 0.00000000000 -1.44919100000 4.26835200000 0.00000000000 0.00000000000 0.00000000000 0.00000000000 -0.06586474103 0.15358479860 0.00000000000 -0.12850301589 0.29607112504 0.00000000000 -0.18799954729 0.42819968135 0.00000000000 -0.24443905792 0.55071116956 0.00000000000 -0.29790627048 0.66434629170 0.00000000000 -0.34848590767 0.76984574980 0.00000000000 -0.39626269220 0.86795024590 0.00000000000 -0.44132134676 0.95940048203 0.00000000000 -0.48374659406 1.04493716021 0.00000000000 -0.52362315678 1.12530098248 0.00000000000 -0.56103575764 1.20123265088 0.00000000000 -0.59606911933 1.27347286742 0.00000000000 -0.62881029343 1.34275180136 0.00000000000 -0.65939989581 1.40955736781 0.00000000000 -0.68803210661 1.47413522777 0.00000000000 -0.71490343486 1.53672050945 0.00000000000 -0.74021038958 1.59754834105 0.00000000000 -0.76414947981 1.65685385078 0.00000000000 -0.78691721457 1.71487216685 0.00000000000 -0.80871010288 1.77183841746 0.00000000000 -0.82972465378 1.82798773082 0.00000000000 -0.85015737628 1.88355523514 0.00000000000 -0.87020477942 1.93877605863 0.00000000000 -0.89006337223 1.99388532949 0.00000000000 -0.90992966373 2.04911817593 0.00000000000 -0.92995695408 2.10470275429 0.00000000000 -0.95012570796 2.16083933342 0.00000000000 -0.97037318119 2.21772121031 0.00000000000 -0.99063662960 2.27554168194 0.00000000000 -1.01085330900 2.33449404529 0.00000000000 -1.03096047520 2.39477159737 0.00000000000 -1.05089538403 2.45656763513 0.00000000000 -1.07059529130 2.52007545559 0.00000000000 -1.08999745283 2.58548835571 0.00000000000 -1.10903912443 2.65299963248 0.00000000000 -1.12765756194 2.72280258289 0.00000000000 -1.14579002115 2.79509050393 0.00000000000 -1.16338274680 2.87007073649 0.00000000000 -1.18058872842 2.94827363135 0.00000000000 -1.19776770034 3.03055254918 0.00000000000 -1.21528838582 3.11777489458 0.00000000000 -1.23351950808 3.21080807213 0.00000000000 -1.25282979038 3.31051948641 0.00000000000 -1.27358795597 3.41777654201 0.00000000000 -1.29616272807 3.53344664351 0.00000000000 -1.32092282995 3.65839719550 0.00000000000 -1.34823698483 3.79349560255 0.00000000000 -1.37847391598 3.93960926927 0.00000000000 -1.41200234662 4.09760560022 0.00000000000 -1.44919100000 4.26835200000 0.00000000000 0.00000000000 0.00000000000 0.00000000000 -0.06442880565 0.15050235026 0.00000000000 -0.12565439044 0.29032975718 0.00000000000 -0.18377844731 0.42020025456 0.00000000000 -0.23890266920 0.54083187618 0.00000000000 -0.29112874904 0.65294265583 0.00000000000 -0.34055837978 0.75725062731 0.00000000000 -0.38729325435 0.85447382439 0.00000000000 -0.43143506568 0.94533028088 0.00000000000 -0.47308550672 1.03053803056 0.00000000000 -0.51234627040 1.11081510723 0.00000000000 -0.54931904965 1.18687954466 0.00000000000 -0.58410553743 1.25944937666 0.00000000000 -0.61680878193 1.32923220480 0.00000000000 -0.64756300290 1.39669568990 0.00000000000 -0.67653359156 1.46206755203 0.00000000000 -0.70388729441 1.52556507901 0.00000000000 -0.72979085797 1.58740555871 0.00000000000 -0.75441102875 1.64780627897 0.00000000000 -0.77791455326 1.70698452763 0.00000000000 -0.80046817800 1.76515759255 0.00000000000 -0.82223864950 1.82254276157 0.00000000000 -0.84339271425 1.87935732254 0.00000000000 -0.86409711878 1.93581856330 0.00000000000 -0.88451860958 1.99214377171 0.00000000000 -0.90482393318 2.04855023561 0.00000000000 -0.92514552106 2.10525211654 0.00000000000 -0.94547854463 2.16245107079 0.00000000000 -0.96578386028 2.22034562836 0.00000000000 -0.98602232440 2.